# vtk DataFile Version 3.0
Scalar field output
ASCII
DATASET UNSTRUCTURED_GRID
POINTS 280 float
0 0 0.0
0.111111 0 0.0
0.222222 0 0.0
0.333333 0 0.0
0.444444 0 0.0
0.555556 0 0.0
0.666667 0 0.0
0.777778 0 0.0
0.888889 0 0.0
1 0 0.0
0 0.111111 0.0
0.111111 0.111111 0.0
0.222222 0.111111 0.0
0.333333 0.111111 0.0
0.444444 0.111111 0.0
0.555556 0.111111 0.0
0.666667 0.111111 0.0
0.777778 0.111111 0.0
0.888889 0.111111 0.0
1 0.111111 0.0
0 0.222222 0.0
0.111111 0.222222 0.0
0.222222 0.222222 0.0
0.333333 0.222222 0.0
0.444444 0.222222 0.0
0.555556 0.222222 0.0
0.666667 0.222222 0.0
0.777778 0.222222 0.0
0.888889 0.222222 0.0
1 0.222222 0.0
0 0.333333 0.0
0.111111 0.333333 0.0
0.222222 0.333333 0.0
0.333333 0.333333 0.0
0.444444 0.333333 0.0
0.555556 0.333333 0.0
0.666667 0.333333 0.0
0.777778 0.333333 0.0
0.888889 0.333333 0.0
1 0.333333 0.0
0 0.444444 0.0
0.111111 0.444444 0.0
0.222222 0.444444 0.0
0.333333 0.444444 0.0
0.444444 0.444444 0.0
0.555556 0.444444 0.0
0.666667 0.444444 0.0
0.777778 0.444444 0.0
0.888889 0.444444 0.0
1 0.444444 0.0
0 0.555556 0.0
0.111111 0.555556 0.0
0.222222 0.555556 0.0
0.333333 0.555556 0.0
0.444444 0.555556 0.0
0.555556 0.555556 0.0
0.666667 0.555556 0.0
0.777778 0.555556 0.0
0.888889 0.555556 0.0
1 0.555556 0.0
0 0.666667 0.0
0.111111 0.666667 0.0
0.222222 0.666667 0.0
0.333333 0.666667 0.0
0.444444 0.666667 0.0
0.555556 0.666667 0.0
0.666667 0.666667 0.0
0.777778 0.666667 0.0
0.888889 0.666667 0.0
1 0.666667 0.0
0 0.777778 0.0
0.111111 0.777778 0.0
0.222222 0.777778 0.0
0.333333 0.777778 0.0
0.444444 0.777778 0.0
0.555556 0.777778 0.0
0.666667 0.777778 0.0
0.777778 0.777778 0.0
0.888889 0.777778 0.0
1 0.777778 0.0
0 0.888889 0.0
0.111111 0.888889 0.0
0.222222 0.888889 0.0
0.333333 0.888889 0.0
0.444444 0.888889 0.0
0.555556 0.888889 0.0
0.666667 0.888889 0.0
0.777778 0.888889 0.0
0.888889 0.888889 0.0
1 0.888889 0.0
0 1 0.0
0.111111 1 0.0
0.222222 1 0.0
0.333333 1 0.0
0.444444 1 0.0
0.555556 1 0.0
0.666667 1 0.0
0.777778 1 0.0
0.888889 1 0.0
1 1 0.0
1.11111 0 0.0
1.22222 0 0.0
1.33333 0 0.0
1.44444 0 0.0
1.55556 0 0.0
1.66667 0 0.0
1.77778 0 0.0
1.88889 0 0.0
2 0 0.0
1.11111 0.111111 0.0
1.22222 0.111111 0.0
1.33333 0.111111 0.0
1.44444 0.111111 0.0
1.55556 0.111111 0.0
1.66667 0.111111 0.0
1.77778 0.111111 0.0
1.88889 0.111111 0.0
2 0.111111 0.0
1.11111 0.222222 0.0
1.22222 0.222222 0.0
1.33333 0.222222 0.0
1.44444 0.222222 0.0
1.55556 0.222222 0.0
1.66667 0.222222 0.0
1.77778 0.222222 0.0
1.88889 0.222222 0.0
2 0.222222 0.0
1.11111 0.333333 0.0
1.22222 0.333333 0.0
1.33333 0.333333 0.0
1.44444 0.333333 0.0
1.55556 0.333333 0.0
1.66667 0.333333 0.0
1.77778 0.333333 0.0
1.88889 0.333333 0.0
2 0.333333 0.0
1.11111 0.444444 0.0
1.22222 0.444444 0.0
1.33333 0.444444 0.0
1.44444 0.444444 0.0
1.55556 0.444444 0.0
1.66667 0.444444 0.0
1.77778 0.444444 0.0
1.88889 0.444444 0.0
2 0.444444 0.0
1.11111 0.555556 0.0
1.22222 0.555556 0.0
1.33333 0.555556 0.0
1.44444 0.555556 0.0
1.55556 0.555556 0.0
1.66667 0.555556 0.0
1.77778 0.555556 0.0
1.88889 0.555556 0.0
2 0.555556 0.0
1.11111 0.666667 0.0
1.22222 0.666667 0.0
1.33333 0.666667 0.0
1.44444 0.666667 0.0
1.55556 0.666667 0.0
1.66667 0.666667 0.0
1.77778 0.666667 0.0
1.88889 0.666667 0.0
2 0.666667 0.0
1.11111 0.777778 0.0
1.22222 0.777778 0.0
1.33333 0.777778 0.0
1.44444 0.777778 0.0
1.55556 0.777778 0.0
1.66667 0.777778 0.0
1.77778 0.777778 0.0
1.88889 0.777778 0.0
2 0.777778 0.0
1.11111 0.888889 0.0
1.22222 0.888889 0.0
1.33333 0.888889 0.0
1.44444 0.888889 0.0
1.55556 0.888889 0.0
1.66667 0.888889 0.0
1.77778 0.888889 0.0
1.88889 0.888889 0.0
2 0.888889 0.0
1.11111 1 0.0
1.22222 1 0.0
1.33333 1 0.0
1.44444 1 0.0
1.55556 1 0.0
1.66667 1 0.0
1.77778 1 0.0
1.88889 1 0.0
2 1 0.0
0 1.11111 0.0
0.111111 1.11111 0.0
0.222222 1.11111 0.0
0.333333 1.11111 0.0
0.444444 1.11111 0.0
0.555556 1.11111 0.0
0.666667 1.11111 0.0
0.777778 1.11111 0.0
0.888889 1.11111 0.0
1 1.11111 0.0
0 1.22222 0.0
0.111111 1.22222 0.0
0.222222 1.22222 0.0
0.333333 1.22222 0.0
0.444444 1.22222 0.0
0.555556 1.22222 0.0
0.666667 1.22222 0.0
0.777778 1.22222 0.0
0.888889 1.22222 0.0
1 1.22222 0.0
0 1.33333 0.0
0.111111 1.33333 0.0
0.222222 1.33333 0.0
0.333333 1.33333 0.0
0.444444 1.33333 0.0
0.555556 1.33333 0.0
0.666667 1.33333 0.0
0.777778 1.33333 0.0
0.888889 1.33333 0.0
1 1.33333 0.0
0 1.44444 0.0
0.111111 1.44444 0.0
0.222222 1.44444 0.0
0.333333 1.44444 0.0
0.444444 1.44444 0.0
0.555556 1.44444 0.0
0.666667 1.44444 0.0
0.777778 1.44444 0.0
0.888889 1.44444 0.0
1 1.44444 0.0
0 1.55556 0.0
0.111111 1.55556 0.0
0.222222 1.55556 0.0
0.333333 1.55556 0.0
0.444444 1.55556 0.0
0.555556 1.55556 0.0
0.666667 1.55556 0.0
0.777778 1.55556 0.0
0.888889 1.55556 0.0
1 1.55556 0.0
0 1.66667 0.0
0.111111 1.66667 0.0
0.222222 1.66667 0.0
0.333333 1.66667 0.0
0.444444 1.66667 0.0
0.555556 1.66667 0.0
0.666667 1.66667 0.0
0.777778 1.66667 0.0
0.888889 1.66667 0.0
1 1.66667 0.0
0 1.77778 0.0
0.111111 1.77778 0.0
0.222222 1.77778 0.0
0.333333 1.77778 0.0
0.444444 1.77778 0.0
0.555556 1.77778 0.0
0.666667 1.77778 0.0
0.777778 1.77778 0.0
0.888889 1.77778 0.0
1 1.77778 0.0
0 1.88889 0.0
0.111111 1.88889 0.0
0.222222 1.88889 0.0
0.333333 1.88889 0.0
0.444444 1.88889 0.0
0.555556 1.88889 0.0
0.666667 1.88889 0.0
0.777778 1.88889 0.0
0.888889 1.88889 0.0
1 1.88889 0.0
0 2 0.0
0.111111 2 0.0
0.222222 2 0.0
0.333333 2 0.0
0.444444 2 0.0
0.555556 2 0.0
0.666667 2 0.0
0.777778 2 0.0
0.888889 2 0.0
1 2 0.0
CELLS 280 560
1 0
1 1
1 2
1 3
1 4
1 5
1 6
1 7
1 8
1 9
1 10
1 11
1 12
1 13
1 14
1 15
1 16
1 17
1 18
1 19
1 20
1 21
1 22
1 23
1 24
1 25
1 26
1 27
1 28
1 29
1 30
1 31
1 32
1 33
1 34
1 35
1 36
1 37
1 38
1 39
1 40
1 41
1 42
1 43
1 44
1 45
1 46
1 47
1 48
1 49
1 50
1 51
1 52
1 53
1 54
1 55
1 56
1 57
1 58
1 59
1 60
1 61
1 62
1 63
1 64
1 65
1 66
1 67
1 68
1 69
1 70
1 71
1 72
1 73
1 74
1 75
1 76
1 77
1 78
1 79
1 80
1 81
1 82
1 83
1 84
1 85
1 86
1 87
1 88
1 89
1 90
1 91
1 92
1 93
1 94
1 95
1 96
1 97
1 98
1 99
1 100
1 101
1 102
1 103
1 104
1 105
1 106
1 107
1 108
1 109
1 110
1 111
1 112
1 113
1 114
1 115
1 116
1 117
1 118
1 119
1 120
1 121
1 122
1 123
1 124
1 125
1 126
1 127
1 128
1 129
1 130
1 131
1 132
1 133
1 134
1 135
1 136
1 137
1 138
1 139
1 140
1 141
1 142
1 143
1 144
1 145
1 146
1 147
1 148
1 149
1 150
1 151
1 152
1 153
1 154
1 155
1 156
1 157
1 158
1 159
1 160
1 161
1 162
1 163
1 164
1 165
1 166
1 167
1 168
1 169
1 170
1 171
1 172
1 173
1 174
1 175
1 176
1 177
1 178
1 179
1 180
1 181
1 182
1 183
1 184
1 185
1 186
1 187
1 188
1 189
1 190
1 191
1 192
1 193
1 194
1 195
1 196
1 197
1 198
1 199
1 200
1 201
1 202
1 203
1 204
1 205
1 206
1 207
1 208
1 209
1 210
1 211
1 212
1 213
1 214
1 215
1 216
1 217
1 218
1 219
1 220
1 221
1 222
1 223
1 224
1 225
1 226
1 227
1 228
1 229
1 230
1 231
1 232
1 233
1 234
1 235
1 236
1 237
1 238
1 239
1 240
1 241
1 242
1 243
1 244
1 245
1 246
1 247
1 248
1 249
1 250
1 251
1 252
1 253
1 254
1 255
1 256
1 257
1 258
1 259
1 260
1 261
1 262
1 263
1 264
1 265
1 266
1 267
1 268
1 269
1 270
1 271
1 272
1 273
1 274
1 275
1 276
1 277
1 278
1 279
CELL_TYPES 280
1
1
1
1
1
1
1
1
1
1
1
1
1
1
1
1
1
1
1
1
1
1
1
1
1
1
1
1
1
1
1
1
1
1
1
1
1
1
1
1
1
1
1
1
1
1
1
1
1
1
1
1
1
1
1
1
1
1
1
1
1
1
1
1
1
1
1
1
1
1
1
1
1
1
1
1
1
1
1
1
1
1
1
1
1
1
1
1
1
1
1
1
1
1
1
1
1
1
1
1
1
1
1
1
1
1
1
1
1
1
1
1
1
1
1
1
1
1
1
1
1
1
1
1
1
1
1
1
1
1
1
1
1
1
1
1
1
1
1
1
1
1
1
1
1
1
1
1
1
1
1
1
1
1
1
1
1
1
1
1
1
1
1
1
1
1
1
1
1
1
1
1
1
1
1
1
1
1
1
1
1
1
1
1
1
1
1
1
1
1
1
1
1
1
1
1
1
1
1
1
1
1
1
1
1
1
1
1
1
1
1
1
1
1
1
1
1
1
1
1
1
1
1
1
1
1
1
1
1
1
1
1
1
1
1
1
1
1
1
1
1
1
1
1
1
1
1
1
1
1
1
1
1
1
1
1
1
1
1
1
1
1
1
1
1
1
1
1
1
1
1
1
1
1
1
1
1
1
1
1
POINT_DATA 280
SCALARS temperature float 1
LOOKUP_TABLE default
0
0
0
0
0
0
0
0
0
0
0
1.65731
2.69734
3.36254
3.76296
3.95195
3.95195
3.76296
3.36254
2.69734
0
2.69734
4.53495
5.75528
6.50278
6.85832
6.85832
6.50278
5.75528
4.53495
0
3.36254
5.75528
7.38628
8.39999
8.88566
8.88566
8.39999
7.38628
5.75528
0
3.76296
6.50278
8.39999
9.59069
10.1641
10.1641
9.59069
8.39999
6.50278
0
3.95195
6.85832
8.88566
10.1641
10.7814
10.7814
10.1641
8.88566
6.85832
0
3.95195
6.85832
8.88566
10.1641
10.7814
10.7814
10.1641
8.88566
6.85832
0
3.76296
6.50278
8.39999
9.59069
10.1641
10.1641
9.59069
8.39999
6.50278
0
3.36254
5.75528
7.38628
8.39999
8.88566
8.88566
8.39999
7.38628
5.75528
0
2.69734
4.53495
5.75528
6.50278
6.85832
6.85832
6.50278
5.75528
4.53495
0
0
0
0
0
0
0
0
0
1.65731
2.69734
3.36254
3.76296
3.95195
3.95195
3.76296
3.36254
0
2.69734
4.53495
5.75528
6.50278
6.85832
6.85832
6.50278
5.75528
0
3.36254
5.75528
7.38628
8.39999
8.88566
8.88566
8.39999
7.38628
0
3.76296
6.50278
8.39999
9.59069
10.1641
10.1641
9.59069
8.39999
0
3.95195
6.85832
8.88566
10.1641
10.7814
10.7814
10.1641
8.88566
0
3.95195
6.85832
8.88566
10.1641
10.7814
10.7814
10.1641
8.88566
0
3.76296
6.50278
8.39999
9.59069
10.1641
10.1641
9.59069
8.39999
0
3.36254
5.75528
7.38628
8.39999
8.88566
8.88566
8.39999
7.38628
0
0
0
0
0
0
0
0
0
0
0
1.65731
2.69734
3.36254
3.76296
3.95195
3.95195
3.76296
3.36254
0
0
2.69734
4.53495
5.75528
6.50278
6.85832
6.85832
6.50278
5.75528
0
0
3.36254
5.75528
7.38628
8.39999
8.88566
8.88566
8.39999
7.38628
0
0
3.76296
6.50278
8.39999
9.59069
10.1641
10.1641
9.59069
8.39999
0
0
3.95195
6.85832
8.88566
10.1641
10.7814
10.7814
10.1641
8.88566
0
0
3.95195
6.85832
8.88566
10.1641
10.7814
10.7814
10.1641
8.88566
0
0
3.76296
6.50278
8.39999
9.59069
10.1641
10.1641
9.59069
8.39999
0
0
3.36254
5.75528
7.38628
8.39999
8.88566
8.88566
8.39999
7.38628
0
0
0
0
0
0
0
0
0
0
0
