# vtk DataFile Version 3.0
Scalar field output
ASCII
DATASET UNSTRUCTURED_GRID
POINTS 4640 float
-0.0263158 -0.0263158 0.0
0.0263158 -0.0263158 0.0
0.0263158 0.0263158 0.0
-0.0263158 0.0263158 0.0
0.0263158 -0.0263158 0.0
0.0789474 -0.0263158 0.0
0.0789474 0.0263158 0.0
0.0263158 0.0263158 0.0
0.0789474 -0.0263158 0.0
0.131579 -0.0263158 0.0
0.131579 0.0263158 0.0
0.0789474 0.0263158 0.0
0.131579 -0.0263158 0.0
0.184211 -0.0263158 0.0
0.184211 0.0263158 0.0
0.131579 0.0263158 0.0
0.184211 -0.0263158 0.0
0.236842 -0.0263158 0.0
0.236842 0.0263158 0.0
0.184211 0.0263158 0.0
0.236842 -0.0263158 0.0
0.289474 -0.0263158 0.0
0.289474 0.0263158 0.0
0.236842 0.0263158 0.0
0.289474 -0.0263158 0.0
0.342105 -0.0263158 0.0
0.342105 0.0263158 0.0
0.289474 0.0263158 0.0
0.342105 -0.0263158 0.0
0.394737 -0.0263158 0.0
0.394737 0.0263158 0.0
0.342105 0.0263158 0.0
0.394737 -0.0263158 0.0
0.447368 -0.0263158 0.0
0.447368 0.0263158 0.0
0.394737 0.0263158 0.0
0.447368 -0.0263158 0.0
0.5 -0.0263158 0.0
0.5 0.0263158 0.0
0.447368 0.0263158 0.0
0.5 -0.0263158 0.0
0.552632 -0.0263158 0.0
0.552632 0.0263158 0.0
0.5 0.0263158 0.0
0.552632 -0.0263158 0.0
0.605263 -0.0263158 0.0
0.605263 0.0263158 0.0
0.552632 0.0263158 0.0
0.605263 -0.0263158 0.0
0.657895 -0.0263158 0.0
0.657895 0.0263158 0.0
0.605263 0.0263158 0.0
0.657895 -0.0263158 0.0
0.710526 -0.0263158 0.0
0.710526 0.0263158 0.0
0.657895 0.0263158 0.0
0.710526 -0.0263158 0.0
0.763158 -0.0263158 0.0
0.763158 0.0263158 0.0
0.710526 0.0263158 0.0
0.763158 -0.0263158 0.0
0.815789 -0.0263158 0.0
0.815789 0.0263158 0.0
0.763158 0.0263158 0.0
0.815789 -0.0263158 0.0
0.868421 -0.0263158 0.0
0.868421 0.0263158 0.0
0.815789 0.0263158 0.0
0.868421 -0.0263158 0.0
0.921053 -0.0263158 0.0
0.921053 0.0263158 0.0
0.868421 0.0263158 0.0
0.921053 -0.0263158 0.0
0.973684 -0.0263158 0.0
0.973684 0.0263158 0.0
0.921053 0.0263158 0.0
0.973684 -0.0263158 0.0
1.02632 -0.0263158 0.0
1.02632 0.0263158 0.0
0.973684 0.0263158 0.0
-0.0263158 0.0263158 0.0
0.0263158 0.0263158 0.0
0.0263158 0.0789474 0.0
-0.0263158 0.0789474 0.0
0.0263158 0.0263158 0.0
0.0789474 0.0263158 0.0
0.0789474 0.0789474 0.0
0.0263158 0.0789474 0.0
0.0789474 0.0263158 0.0
0.131579 0.0263158 0.0
0.131579 0.0789474 0.0
0.0789474 0.0789474 0.0
0.131579 0.0263158 0.0
0.184211 0.0263158 0.0
0.184211 0.0789474 0.0
0.131579 0.0789474 0.0
0.184211 0.0263158 0.0
0.236842 0.0263158 0.0
0.236842 0.0789474 0.0
0.184211 0.0789474 0.0
0.236842 0.0263158 0.0
0.289474 0.0263158 0.0
0.289474 0.0789474 0.0
0.236842 0.0789474 0.0
0.289474 0.0263158 0.0
0.342105 0.0263158 0.0
0.342105 0.0789474 0.0
0.289474 0.0789474 0.0
0.342105 0.0263158 0.0
0.394737 0.0263158 0.0
0.394737 0.0789474 0.0
0.342105 0.0789474 0.0
0.394737 0.0263158 0.0
0.447368 0.0263158 0.0
0.447368 0.0789474 0.0
0.394737 0.0789474 0.0
0.447368 0.0263158 0.0
0.5 0.0263158 0.0
0.5 0.0789474 0.0
0.447368 0.0789474 0.0
0.5 0.0263158 0.0
0.552632 0.0263158 0.0
0.552632 0.0789474 0.0
0.5 0.0789474 0.0
0.552632 0.0263158 0.0
0.605263 0.0263158 0.0
0.605263 0.0789474 0.0
0.552632 0.0789474 0.0
0.605263 0.0263158 0.0
0.657895 0.0263158 0.0
0.657895 0.0789474 0.0
0.605263 0.0789474 0.0
0.657895 0.0263158 0.0
0.710526 0.0263158 0.0
0.710526 0.0789474 0.0
0.657895 0.0789474 0.0
0.710526 0.0263158 0.0
0.763158 0.0263158 0.0
0.763158 0.0789474 0.0
0.710526 0.0789474 0.0
0.763158 0.0263158 0.0
0.815789 0.0263158 0.0
0.815789 0.0789474 0.0
0.763158 0.0789474 0.0
0.815789 0.0263158 0.0
0.868421 0.0263158 0.0
0.868421 0.0789474 0.0
0.815789 0.0789474 0.0
0.868421 0.0263158 0.0
0.921053 0.0263158 0.0
0.921053 0.0789474 0.0
0.868421 0.0789474 0.0
0.921053 0.0263158 0.0
0.973684 0.0263158 0.0
0.973684 0.0789474 0.0
0.921053 0.0789474 0.0
0.973684 0.0263158 0.0
1.02632 0.0263158 0.0
1.02632 0.0789474 0.0
0.973684 0.0789474 0.0
-0.0263158 0.0789474 0.0
0.0263158 0.0789474 0.0
0.0263158 0.131579 0.0
-0.0263158 0.131579 0.0
0.0263158 0.0789474 0.0
0.0789474 0.0789474 0.0
0.0789474 0.131579 0.0
0.0263158 0.131579 0.0
0.0789474 0.0789474 0.0
0.131579 0.0789474 0.0
0.131579 0.131579 0.0
0.0789474 0.131579 0.0
0.131579 0.0789474 0.0
0.184211 0.0789474 0.0
0.184211 0.131579 0.0
0.131579 0.131579 0.0
0.184211 0.0789474 0.0
0.236842 0.0789474 0.0
0.236842 0.131579 0.0
0.184211 0.131579 0.0
0.236842 0.0789474 0.0
0.289474 0.0789474 0.0
0.289474 0.131579 0.0
0.236842 0.131579 0.0
0.289474 0.0789474 0.0
0.342105 0.0789474 0.0
0.342105 0.131579 0.0
0.289474 0.131579 0.0
0.342105 0.0789474 0.0
0.394737 0.0789474 0.0
0.394737 0.131579 0.0
0.342105 0.131579 0.0
0.394737 0.0789474 0.0
0.447368 0.0789474 0.0
0.447368 0.131579 0.0
0.394737 0.131579 0.0
0.447368 0.0789474 0.0
0.5 0.0789474 0.0
0.5 0.131579 0.0
0.447368 0.131579 0.0
0.5 0.0789474 0.0
0.552632 0.0789474 0.0
0.552632 0.131579 0.0
0.5 0.131579 0.0
0.552632 0.0789474 0.0
0.605263 0.0789474 0.0
0.605263 0.131579 0.0
0.552632 0.131579 0.0
0.605263 0.0789474 0.0
0.657895 0.0789474 0.0
0.657895 0.131579 0.0
0.605263 0.131579 0.0
0.657895 0.0789474 0.0
0.710526 0.0789474 0.0
0.710526 0.131579 0.0
0.657895 0.131579 0.0
0.710526 0.0789474 0.0
0.763158 0.0789474 0.0
0.763158 0.131579 0.0
0.710526 0.131579 0.0
0.763158 0.0789474 0.0
0.815789 0.0789474 0.0
0.815789 0.131579 0.0
0.763158 0.131579 0.0
0.815789 0.0789474 0.0
0.868421 0.0789474 0.0
0.868421 0.131579 0.0
0.815789 0.131579 0.0
0.868421 0.0789474 0.0
0.921053 0.0789474 0.0
0.921053 0.131579 0.0
0.868421 0.131579 0.0
0.921053 0.0789474 0.0
0.973684 0.0789474 0.0
0.973684 0.131579 0.0
0.921053 0.131579 0.0
0.973684 0.0789474 0.0
1.02632 0.0789474 0.0
1.02632 0.131579 0.0
0.973684 0.131579 0.0
-0.0263158 0.131579 0.0
0.0263158 0.131579 0.0
0.0263158 0.184211 0.0
-0.0263158 0.184211 0.0
0.0263158 0.131579 0.0
0.0789474 0.131579 0.0
0.0789474 0.184211 0.0
0.0263158 0.184211 0.0
0.0789474 0.131579 0.0
0.131579 0.131579 0.0
0.131579 0.184211 0.0
0.0789474 0.184211 0.0
0.131579 0.131579 0.0
0.184211 0.131579 0.0
0.184211 0.184211 0.0
0.131579 0.184211 0.0
0.184211 0.131579 0.0
0.236842 0.131579 0.0
0.236842 0.184211 0.0
0.184211 0.184211 0.0
0.236842 0.131579 0.0
0.289474 0.131579 0.0
0.289474 0.184211 0.0
0.236842 0.184211 0.0
0.289474 0.131579 0.0
0.342105 0.131579 0.0
0.342105 0.184211 0.0
0.289474 0.184211 0.0
0.342105 0.131579 0.0
0.394737 0.131579 0.0
0.394737 0.184211 0.0
0.342105 0.184211 0.0
0.394737 0.131579 0.0
0.447368 0.131579 0.0
0.447368 0.184211 0.0
0.394737 0.184211 0.0
0.447368 0.131579 0.0
0.5 0.131579 0.0
0.5 0.184211 0.0
0.447368 0.184211 0.0
0.5 0.131579 0.0
0.552632 0.131579 0.0
0.552632 0.184211 0.0
0.5 0.184211 0.0
0.552632 0.131579 0.0
0.605263 0.131579 0.0
0.605263 0.184211 0.0
0.552632 0.184211 0.0
0.605263 0.131579 0.0
0.657895 0.131579 0.0
0.657895 0.184211 0.0
0.605263 0.184211 0.0
0.657895 0.131579 0.0
0.710526 0.131579 0.0
0.710526 0.184211 0.0
0.657895 0.184211 0.0
0.710526 0.131579 0.0
0.763158 0.131579 0.0
0.763158 0.184211 0.0
0.710526 0.184211 0.0
0.763158 0.131579 0.0
0.815789 0.131579 0.0
0.815789 0.184211 0.0
0.763158 0.184211 0.0
0.815789 0.131579 0.0
0.868421 0.131579 0.0
0.868421 0.184211 0.0
0.815789 0.184211 0.0
0.868421 0.131579 0.0
0.921053 0.131579 0.0
0.921053 0.184211 0.0
0.868421 0.184211 0.0
0.921053 0.131579 0.0
0.973684 0.131579 0.0
0.973684 0.184211 0.0
0.921053 0.184211 0.0
0.973684 0.131579 0.0
1.02632 0.131579 0.0
1.02632 0.184211 0.0
0.973684 0.184211 0.0
-0.0263158 0.184211 0.0
0.0263158 0.184211 0.0
0.0263158 0.236842 0.0
-0.0263158 0.236842 0.0
0.0263158 0.184211 0.0
0.0789474 0.184211 0.0
0.0789474 0.236842 0.0
0.0263158 0.236842 0.0
0.0789474 0.184211 0.0
0.131579 0.184211 0.0
0.131579 0.236842 0.0
0.0789474 0.236842 0.0
0.131579 0.184211 0.0
0.184211 0.184211 0.0
0.184211 0.236842 0.0
0.131579 0.236842 0.0
0.184211 0.184211 0.0
0.236842 0.184211 0.0
0.236842 0.236842 0.0
0.184211 0.236842 0.0
0.236842 0.184211 0.0
0.289474 0.184211 0.0
0.289474 0.236842 0.0
0.236842 0.236842 0.0
0.289474 0.184211 0.0
0.342105 0.184211 0.0
0.342105 0.236842 0.0
0.289474 0.236842 0.0
0.342105 0.184211 0.0
0.394737 0.184211 0.0
0.394737 0.236842 0.0
0.342105 0.236842 0.0
0.394737 0.184211 0.0
0.447368 0.184211 0.0
0.447368 0.236842 0.0
0.394737 0.236842 0.0
0.447368 0.184211 0.0
0.5 0.184211 0.0
0.5 0.236842 0.0
0.447368 0.236842 0.0
0.5 0.184211 0.0
0.552632 0.184211 0.0
0.552632 0.236842 0.0
0.5 0.236842 0.0
0.552632 0.184211 0.0
0.605263 0.184211 0.0
0.605263 0.236842 0.0
0.552632 0.236842 0.0
0.605263 0.184211 0.0
0.657895 0.184211 0.0
0.657895 0.236842 0.0
0.605263 0.236842 0.0
0.657895 0.184211 0.0
0.710526 0.184211 0.0
0.710526 0.236842 0.0
0.657895 0.236842 0.0
0.710526 0.184211 0.0
0.763158 0.184211 0.0
0.763158 0.236842 0.0
0.710526 0.236842 0.0
0.763158 0.184211 0.0
0.815789 0.184211 0.0
0.815789 0.236842 0.0
0.763158 0.236842 0.0
0.815789 0.184211 0.0
0.868421 0.184211 0.0
0.868421 0.236842 0.0
0.815789 0.236842 0.0
0.868421 0.184211 0.0
0.921053 0.184211 0.0
0.921053 0.236842 0.0
0.868421 0.236842 0.0
0.921053 0.184211 0.0
0.973684 0.184211 0.0
0.973684 0.236842 0.0
0.921053 0.236842 0.0
0.973684 0.184211 0.0
1.02632 0.184211 0.0
1.02632 0.236842 0.0
0.973684 0.236842 0.0
-0.0263158 0.236842 0.0
0.0263158 0.236842 0.0
0.0263158 0.289474 0.0
-0.0263158 0.289474 0.0
0.0263158 0.236842 0.0
0.0789474 0.236842 0.0
0.0789474 0.289474 0.0
0.0263158 0.289474 0.0
0.0789474 0.236842 0.0
0.131579 0.236842 0.0
0.131579 0.289474 0.0
0.0789474 0.289474 0.0
0.131579 0.236842 0.0
0.184211 0.236842 0.0
0.184211 0.289474 0.0
0.131579 0.289474 0.0
0.184211 0.236842 0.0
0.236842 0.236842 0.0
0.236842 0.289474 0.0
0.184211 0.289474 0.0
0.236842 0.236842 0.0
0.289474 0.236842 0.0
0.289474 0.289474 0.0
0.236842 0.289474 0.0
0.289474 0.236842 0.0
0.342105 0.236842 0.0
0.342105 0.289474 0.0
0.289474 0.289474 0.0
0.342105 0.236842 0.0
0.394737 0.236842 0.0
0.394737 0.289474 0.0
0.342105 0.289474 0.0
0.394737 0.236842 0.0
0.447368 0.236842 0.0
0.447368 0.289474 0.0
0.394737 0.289474 0.0
0.447368 0.236842 0.0
0.5 0.236842 0.0
0.5 0.289474 0.0
0.447368 0.289474 0.0
0.5 0.236842 0.0
[...]
CELL_DATA 1160
SCALARS pressure float 1
LOOKUP_TABLE default
1
4
4
4
4
4
4
4
4
4
4
4
4
4
4
4
4
4
4
4
1
2.47843
3.05005
3.30805
3.44054
3.51533
3.56033
3.58857
3.60679
3.61881
3.62691
3.63254
3.63664
3.63981
3.64245
3.64481
3.64704
3.64923
3.6514
3.65355
1
1.86431
2.41501
2.74353
2.94129
3.0635
3.141
3.1912
3.22425
3.24637
3.26146
3.27208
3.27991
3.28606
3.29128
3.29602
3.30056
3.30503
3.30949
3.31391
1
1.56509
2.00468
2.31354
2.5225
2.66238
2.756
2.81891
2.86143
2.89046
2.91064
2.92513
2.93607
2.94492
2.95262
2.9598
2.96678
2.97375
2.98074
2.98771
1
1.39323
1.72881
1.98891
2.17999
2.3163
2.41198
2.4786
2.52491
2.55729
2.58036
2.59741
2.61074
2.62194
2.63208
2.64181
2.65151
2.66131
2.67122
2.68112
1
1.28144
1.53318
1.74038
1.9015
2.02212
2.1102
2.17353
2.21877
2.25129
2.27519
2.29355
2.3086
2.32191
2.33452
2.34707
2.35986
2.37299
2.38635
2.39976
1
1.20219
1.38778
1.54633
1.67451
1.77397
1.8489
1.90431
1.94502
1.97521
1.99832
2.01703
2.03335
2.04868
2.06397
2.07974
2.0962
2.11331
2.13084
2.14847
1
1.14281
1.27585
1.39219
1.48874
1.5656
1.62496
1.66998
1.70405
1.73036
1.75166
1.77017
1.78757
1.80509
1.82347
1.84307
1.86396
1.88591
1.90852
1.93128
1
1.09676
1.18767
1.26828
1.3363
1.39142
1.43485
1.46864
1.4952
1.51693
1.53598
1.55416
1.57282
1.59294
1.61505
1.63933
1.66562
1.69349
1.72231
1.75132
1
1.06034
1.11725
1.16804
1.21125
1.24666
1.27507
1.29792
1.31701
1.33417
1.3511
1.36922
1.38962
1.41302
1.43974
1.46976
1.50267
1.53779
1.57419
1.61078
1
1.03127
1.0607
1.08686
1.10904
1.12728
1.14229
1.15523
1.16754
1.18067
1.196
1.21468
1.23756
1.26515
1.29758
1.33461
1.37561
1.41956
1.46518
1.51099
1
1.00803
1.01532
1.02137
1.02608
1.02983
1.0334
1.03787
1.04448
1.05448
1.06904
1.08911
1.1154
1.14825
1.18766
1.23318
1.28395
1.33862
1.39545
1.45241
1
0.989516
0.979091
0.968918
0.959425
0.951304
0.94549
0.943088
0.945281
0.953234
0.968
0.99044
1.02116
1.06044
1.10817
1.1638
1.22624
1.29383
1.36427
1.4348
1
0.974897
0.950451
0.927395
0.906583
0.889012
0.875802
0.868149
0.867263
0.874297
0.890279
0.916052
0.952211
0.999041
1.05645
1.12385
1.20006
1.28312
1.37013
1.45732
1
0.963496
0.928113
0.895007
0.865389
0.840532
0.821749
0.810363
0.807659
0.814839
0.83297
0.862939
0.905406
0.960756
1.02902
1.10976
1.20188
1.30332
1.41063
1.51866
1
0.954749
0.910987
0.87021
0.833929
0.803658
0.780902
0.767124
0.763713
0.771954
0.792994
0.82781
0.877191
0.941702
1.02164
1.11694
1.22693
1.3499
1.48226
1.61727
1
0.948177
0.898137
0.851657
0.810498
0.776389
0.751008
0.735959
0.732748
0.742756
0.767225
0.807248
0.863769
0.937591
1.02939
1.1397
1.2688
1.41623
1.57955
1.75124
1
0.943363
0.88875
0.838167
0.793586
0.75692
0.730004
0.714572
0.712239
0.724481
0.752629
0.797879
0.861315
0.943965
1.0469
1.1714
1.31916
1.49234
1.69274
1.91702
1
0.93995
0.882122
0.828711
0.781863
0.74365
0.71604
0.700882
0.699881
0.714588
0.746398
0.796566
0.866244
0.956576
1.06886
1.20492
1.36779
1.56315
1.80193
2.10153
1
0.937633
0.877649
0.8224
0.774179
0.735184
0.707497
0.693058
0.693639
0.710839
0.746074
0.800591
0.875505
0.971876
1.09087
1.23411
1.40451
1.6087
1.86553
2.24035
4
4
4
4
4
4
4
4
4
4
4
4
4
4
4
4
4
4
4
3.65566
3.65769
3.65963
3.66144
3.66308
3.66456
3.66587
3.66699
3.66795
3.66875
3.6694
3.66993
3.67035
3.67067
3.67091
3.67107
3.67118
3.67123
3.67123
3.31826
3.32246
3.32645
3.33016
3.33355
3.33658
3.33925
3.34155
3.3435
3.34513
3.34646
3.34753
3.34838
3.34902
3.34951
3.34985
3.35007
3.35017
3.35017
2.99456
3.00117
3.00744
3.01326
3.01856
3.02329
3.02744
3.03102
3.03404
3.03655
3.0386
3.04024
3.04154
3.04253
3.04327
3.04379
3.04412
3.04428
3.04428
2.69087
2.70027
2.70916
2.7174
2.72487
2.73152
2.73733
2.74231
2.7465
2.74998
2.75281
2.75507
2.75684
2.7582
2.75921
2.75992
2.76036
2.76058
2.76058
2.41294
2.42565
2.43762
2.44867
2.45866
2.4675
2.47518
2.48173
2.48723
2.49175
2.49543
2.49835
2.50064
2.50238
2.50367
2.50458
2.50515
2.50543
2.50543
2.1658
2.18245
2.19809
2.21244
2.22533
2.23669
2.24649
2.2548
2.26173
2.26742
2.272
2.27563
2.27846
2.28061
2.28219
2.2833
2.284
2.28434
2.28434
1.95362
1.97501
1.99499
2.01321
2.02948
2.04369
2.05588
2.06614
2.07463
2.08155
2.0871
2.09147
2.09486
2.09742
2.09931
2.10062
2.10145
2.10185
2.10185
1.77972
1.80677
1.83188
1.85462
1.87473
1.89216
1.90698
1.91935
1.9295
1.93771
1.94425
1.94937
1.95332
1.95629
1.95846
1.95998
1.96093
1.96139
1.96139
1.64648
1.68029
1.71141
1.73933
1.76378
1.78474
1.80238
1.81695
1.82881
1.83832
1.84583
1.85168
1.85615
1.85951
1.86195
1.86364
1.8647
1.86522
1.86522
1.55546
1.59726
1.63535
1.66912
1.69833
1.72305
1.7436
1.76039
1.7739
1.78464
1.79304
1.79953
1.80447
1.80815
1.81082
1.81266
1.81381
1.81437
1.81437
1.50741
1.55861
1.60468
1.64491
1.67917
1.70773
1.73111
1.74996
1.76496
1.77673
1.78587
1.79288
1.79816
1.80208
1.80491
1.80685
1.80807
1.80865
1.80865
1.50247
1.56469
1.61972
1.66687
1.70622
1.73841
1.76431
1.78487
1.801
1.81352
1.82314
1.83044
1.83592
1.83995
1.84285
1.84483
1.84607
1.84666
1.84666
1.54037
1.61546
1.68036
1.73453
1.77861
1.81382
1.84157
1.86321
1.87993
1.89274
1.90247
1.9098
1.91526
1.91925
1.9221
1.92405
1.92526
1.92584
1.92584
1.62085
1.711
1.78632
1.84698
1.89471
1.93175
1.96022
1.98198
1.99851
2.01101
2.02041
2.02742
2.0326
2.03637
2.03905
2.04087
2.042
2.04254
2.04254
1.74439
1.85214
1.93755
2.00291
2.05214
2.08898
2.11652
2.13709
2.15245
2.16391
2.17242
2.17872
2.18335
2.18669
2.18906
2.19067
2.19166
2.19213
2.19213
1.914
2.04176
2.13464
2.20064
2.24756
2.2812
2.30555
2.32333
2.33637
2.34597
2.35304
2.35822
2.362
2.36473
2.36665
2.36795
2.36875
2.36914
2.36914
2.14026
2.28709
2.37888
2.43745
2.47616
2.5026
2.52112
2.53434
2.5439
2.55085
2.55593
2.55963
2.56231
2.56424
2.5656
2.56651
2.56708
2.56735
2.56735
2.45875
2.60212
2.67041
2.70787
2.73065
2.74549
2.7556
2.7627
2.76777
2.77142
2.77408
2.77601
2.77741
2.77841
2.77911
2.77958
2.77987
2.78001
2.78001
3
3
3
3
3
3
3
3
3
3
3
3
3
3
3
3
3
3
3
1
0.936152
0.87482
0.818484
0.769552
0.730331
0.70299
0.689536
0.691787
0.711354
0.74963
0.807792
0.886808
0.987466
1.11042
1.25621
1.42515
1.61626
1.82182
2
1
0.935294
0.873211
0.816334
0.767168
0.728102
0.701371
0.689029
0.692913
0.714623
0.755493
0.816584
0.898656
1.00215
1.12715
1.27319
1.43894
1.62112
1.81245
2
1
0.934883
0.872475
0.815443
0.766365
0.727694
0.701715
0.690508
0.695911
0.719491
0.762506
0.82588
0.910158
1.01546
1.14138
1.28684
1.44979
1.62671
1.81223
2
1
0.93478
0.872338
0.815405
0.766618
0.728478
0.703301
0.69318
0.699943
0.725112
0.769861
0.83498
0.920819
1.02723
1.15349
1.29814
1.4589
1.6324
1.81433
2
1
0.934878
0.872588
0.81591
0.767527
0.729973
0.705586
0.696461
0.704406
0.730895
0.777022
0.843455
0.930385
1.03747
1.16374
1.30758
1.46659
1.63761
1.81679
2
1
0.935096
0.873064
0.816725
0.768794
0.731829
0.708179
0.699936
0.708885
0.736451
0.783658
0.851072
0.938756
1.04622
1.17236
1.31544
1.47304
1.6421
1.81906
2
1
0.935374
0.873652
0.817683
0.770207
0.733797
0.710809
0.703327
0.713111
0.741545
0.789588
0.857727
0.945926
1.05359
1.17952
1.32191
1.47835
1.64586
1.82099
2
1
0.935671
0.874271
0.818669
0.771622
0.735714
0.713302
0.706461
0.716928
0.746051
0.794737
0.863408
0.951955
1.05971
1.1854
1.3272
1.48268
1.64892
1.82257
2
1
0.935962
0.87487
0.819609
0.772949
0.737479
0.715556
0.709245
0.720262
0.749926
0.799101
0.868159
0.956937
1.06471
1.19017
1.33146
1.48616
1.65138
1.82384
2
1
0.936229
0.875417
0.82046
0.774136
0.739038
0.71752
0.711639
0.723094
0.753177
0.802722
0.87206
0.960987
1.06874
1.19399
1.33485
1.48891
1.65333
1.82485
2
1
0.936464
0.875896
0.8212
0.775159
0.740369
0.719182
0.713644
0.725442
0.755847
0.805667
0.875206
0.964229
1.07195
1.19701
1.33752
1.49108
1.65485
1.82564
2
1
0.936663
0.8763
0.821822
0.776014
0.741474
0.72055
0.715281
0.727344
0.757993
0.808017
0.877698
0.966781
1.07446
1.19936
1.33959
1.49275
1.65603
1.82625
2
1
0.936826
0.876631
0.82233
0.776708
0.742365
0.721646
0.716586
0.728849
0.759681
0.809854
0.879636
0.968755
1.07639
1.20116
1.34117
1.49403
1.65692
1.82671
2
1
0.936956
0.876894
0.82273
0.777254
0.743063
0.722501
0.717597
0.73001
0.760976
0.811257
0.881109
0.970248
1.07784
1.20251
1.34235
1.49498
1.65759
1.82705
2
1
0.937055
0.877093
0.823034
0.777667
0.743589
0.723142
0.718353
0.730875
0.761936
0.812293
0.882192
0.971343
1.07891
1.2035
1.34321
1.49567
1.65808
1.8273
2
1
0.937125
0.877236
0.823251
0.777961
0.743963
0.723598
0.718888
0.731485
0.762612
0.81302
0.88295
0.972107
1.07965
1.20418
1.34381
1.49615
1.65841
1.82747
2
1
0.937171
0.877328
0.823391
0.77815
0.744203
0.723889
0.719229
0.731873
0.76304
0.81348
0.883429
0.972588
1.08011
1.20461
1.34419
1.49645
1.65862
1.82758
2
1
0.937193
0.877373
0.823459
0.778243
0.74432
0.72403
0.719395
0.732061
0.763248
0.813703
0.88366
0.972821
1.08034
1.20482
1.34437
1.49659
1.65872
1.82763
2
0.937086
0.937193
0.877373
0.823459
0.778243
0.74432
0.72403
0.719395
0.732061
0.763248
0.813703
0.88366
0.972821
1.08034
1.20482
1.34437
1.49659
1.65872
1.82763
1.82763
