# vtk DataFile Version 3.0
Scalar field output
ASCII
DATASET UNSTRUCTURED_GRID
POINTS 6160 double
-0.0263158 -0.0263158 0.0
0.0263158 -0.0263158 0.0
0.0263158 0.0263158 0.0
-0.0263158 0.0263158 0.0
0.0263158 -0.0263158 0.0
0.0789474 -0.0263158 0.0
0.0789474 0.0263158 0.0
0.0263158 0.0263158 0.0
0.0789474 -0.0263158 0.0
0.131579 -0.0263158 0.0
0.131579 0.0263158 0.0
0.0789474 0.0263158 0.0
0.131579 -0.0263158 0.0
0.184211 -0.0263158 0.0
0.184211 0.0263158 0.0
0.131579 0.0263158 0.0
0.184211 -0.0263158 0.0
0.236842 -0.0263158 0.0
0.236842 0.0263158 0.0
0.184211 0.0263158 0.0
0.236842 -0.0263158 0.0
0.289474 -0.0263158 0.0
0.289474 0.0263158 0.0
0.236842 0.0263158 0.0
0.289474 -0.0263158 0.0
0.342105 -0.0263158 0.0
0.342105 0.0263158 0.0
0.289474 0.0263158 0.0
0.342105 -0.0263158 0.0
0.394737 -0.0263158 0.0
0.394737 0.0263158 0.0
0.342105 0.0263158 0.0
0.394737 -0.0263158 0.0
0.447368 -0.0263158 0.0
0.447368 0.0263158 0.0
0.394737 0.0263158 0.0
0.447368 -0.0263158 0.0
0.5 -0.0263158 0.0
0.5 0.0263158 0.0
0.447368 0.0263158 0.0
0.5 -0.0263158 0.0
0.552632 -0.0263158 0.0
0.552632 0.0263158 0.0
0.5 0.0263158 0.0
0.552632 -0.0263158 0.0
0.605263 -0.0263158 0.0
0.605263 0.0263158 0.0
0.552632 0.0263158 0.0
0.605263 -0.0263158 0.0
0.657895 -0.0263158 0.0
0.657895 0.0263158 0.0
0.605263 0.0263158 0.0
0.657895 -0.0263158 0.0
0.710526 -0.0263158 0.0
0.710526 0.0263158 0.0
0.657895 0.0263158 0.0
0.710526 -0.0263158 0.0
0.763158 -0.0263158 0.0
0.763158 0.0263158 0.0
0.710526 0.0263158 0.0
0.763158 -0.0263158 0.0
0.815789 -0.0263158 0.0
0.815789 0.0263158 0.0
0.763158 0.0263158 0.0
0.815789 -0.0263158 0.0
0.868421 -0.0263158 0.0
0.868421 0.0263158 0.0
0.815789 0.0263158 0.0
0.868421 -0.0263158 0.0
0.921053 -0.0263158 0.0
0.921053 0.0263158 0.0
0.868421 0.0263158 0.0
0.921053 -0.0263158 0.0
0.973684 -0.0263158 0.0
0.973684 0.0263158 0.0
0.921053 0.0263158 0.0
0.973684 -0.0263158 0.0
1.02632 -0.0263158 0.0
1.02632 0.0263158 0.0
0.973684 0.0263158 0.0
-0.0263158 0.0263158 0.0
0.0263158 0.0263158 0.0
0.0263158 0.0789474 0.0
-0.0263158 0.0789474 0.0
0.0263158 0.0263158 0.0
0.0789474 0.0263158 0.0
0.0789474 0.0789474 0.0
0.0263158 0.0789474 0.0
0.0789474 0.0263158 0.0
0.131579 0.0263158 0.0
0.131579 0.0789474 0.0
0.0789474 0.0789474 0.0
0.131579 0.0263158 0.0
0.184211 0.0263158 0.0
0.184211 0.0789474 0.0
0.131579 0.0789474 0.0
0.184211 0.0263158 0.0
0.236842 0.0263158 0.0
0.236842 0.0789474 0.0
0.184211 0.0789474 0.0
0.236842 0.0263158 0.0
0.289474 0.0263158 0.0
0.289474 0.0789474 0.0
0.236842 0.0789474 0.0
0.289474 0.0263158 0.0
0.342105 0.0263158 0.0
0.342105 0.0789474 0.0
0.289474 0.0789474 0.0
0.342105 0.0263158 0.0
0.394737 0.0263158 0.0
0.394737 0.0789474 0.0
0.342105 0.0789474 0.0
0.394737 0.0263158 0.0
0.447368 0.0263158 0.0
0.447368 0.0789474 0.0
0.394737 0.0789474 0.0
0.447368 0.0263158 0.0
0.5 0.0263158 0.0
0.5 0.0789474 0.0
0.447368 0.0789474 0.0
0.5 0.0263158 0.0
0.552632 0.0263158 0.0
0.552632 0.0789474 0.0
0.5 0.0789474 0.0
0.552632 0.0263158 0.0
0.605263 0.0263158 0.0
0.605263 0.0789474 0.0
0.552632 0.0789474 0.0
0.605263 0.0263158 0.0
0.657895 0.0263158 0.0
0.657895 0.0789474 0.0
0.605263 0.0789474 0.0
0.657895 0.0263158 0.0
0.710526 0.0263158 0.0
0.710526 0.0789474 0.0
0.657895 0.0789474 0.0
0.710526 0.0263158 0.0
0.763158 0.0263158 0.0
0.763158 0.0789474 0.0
0.710526 0.0789474 0.0
0.763158 0.0263158 0.0
0.815789 0.0263158 0.0
0.815789 0.0789474 0.0
0.763158 0.0789474 0.0
0.815789 0.0263158 0.0
0.868421 0.0263158 0.0
0.868421 0.0789474 0.0
0.815789 0.0789474 0.0
0.868421 0.0263158 0.0
0.921053 0.0263158 0.0
0.921053 0.0789474 0.0
0.868421 0.0789474 0.0
0.921053 0.0263158 0.0
0.973684 0.0263158 0.0
0.973684 0.0789474 0.0
0.921053 0.0789474 0.0
0.973684 0.0263158 0.0
1.02632 0.0263158 0.0
1.02632 0.0789474 0.0
0.973684 0.0789474 0.0
-0.0263158 0.0789474 0.0
0.0263158 0.0789474 0.0
0.0263158 0.131579 0.0
-0.0263158 0.131579 0.0
0.0263158 0.0789474 0.0
0.0789474 0.0789474 0.0
0.0789474 0.131579 0.0
0.0263158 0.131579 0.0
0.0789474 0.0789474 0.0
0.131579 0.0789474 0.0
0.131579 0.131579 0.0
0.0789474 0.131579 0.0
0.131579 0.0789474 0.0
0.184211 0.0789474 0.0
0.184211 0.131579 0.0
0.131579 0.131579 0.0
0.184211 0.0789474 0.0
0.236842 0.0789474 0.0
0.236842 0.131579 0.0
0.184211 0.131579 0.0
0.236842 0.0789474 0.0
0.289474 0.0789474 0.0
0.289474 0.131579 0.0
0.236842 0.131579 0.0
0.289474 0.0789474 0.0
0.342105 0.0789474 0.0
0.342105 0.131579 0.0
0.289474 0.131579 0.0
0.342105 0.0789474 0.0
0.394737 0.0789474 0.0
0.394737 0.131579 0.0
0.342105 0.131579 0.0
0.394737 0.0789474 0.0
0.447368 0.0789474 0.0
0.447368 0.131579 0.0
0.394737 0.131579 0.0
0.447368 0.0789474 0.0
0.5 0.0789474 0.0
0.5 0.131579 0.0
0.447368 0.131579 0.0
0.5 0.0789474 0.0
0.552632 0.0789474 0.0
0.552632 0.131579 0.0
0.5 0.131579 0.0
0.552632 0.0789474 0.0
0.605263 0.0789474 0.0
0.605263 0.131579 0.0
0.552632 0.131579 0.0
0.605263 0.0789474 0.0
0.657895 0.0789474 0.0
0.657895 0.131579 0.0
0.605263 0.131579 0.0
0.657895 0.0789474 0.0
0.710526 0.0789474 0.0
0.710526 0.131579 0.0
0.657895 0.131579 0.0
0.710526 0.0789474 0.0
0.763158 0.0789474 0.0
0.763158 0.131579 0.0
0.710526 0.131579 0.0
0.763158 0.0789474 0.0
0.815789 0.0789474 0.0
0.815789 0.131579 0.0
0.763158 0.131579 0.0
0.815789 0.0789474 0.0
0.868421 0.0789474 0.0
0.868421 0.131579 0.0
0.815789 0.131579 0.0
0.868421 0.0789474 0.0
0.921053 0.0789474 0.0
0.921053 0.131579 0.0
0.868421 0.131579 0.0
0.921053 0.0789474 0.0
0.973684 0.0789474 0.0
0.973684 0.131579 0.0
0.921053 0.131579 0.0
0.973684 0.0789474 0.0
1.02632 0.0789474 0.0
1.02632 0.131579 0.0
0.973684 0.131579 0.0
-0.0263158 0.131579 0.0
0.0263158 0.131579 0.0
0.0263158 0.184211 0.0
-0.0263158 0.184211 0.0
0.0263158 0.131579 0.0
0.0789474 0.131579 0.0
0.0789474 0.184211 0.0
0.0263158 0.184211 0.0
0.0789474 0.131579 0.0
0.131579 0.131579 0.0
0.131579 0.184211 0.0
0.0789474 0.184211 0.0
0.131579 0.131579 0.0
0.184211 0.131579 0.0
0.184211 0.184211 0.0
0.131579 0.184211 0.0
0.184211 0.131579 0.0
0.236842 0.131579 0.0
0.236842 0.184211 0.0
0.184211 0.184211 0.0
0.236842 0.131579 0.0
0.289474 0.131579 0.0
0.289474 0.184211 0.0
0.236842 0.184211 0.0
0.289474 0.131579 0.0
0.342105 0.131579 0.0
0.342105 0.184211 0.0
0.289474 0.184211 0.0
0.342105 0.131579 0.0
0.394737 0.131579 0.0
0.394737 0.184211 0.0
0.342105 0.184211 0.0
0.394737 0.131579 0.0
0.447368 0.131579 0.0
0.447368 0.184211 0.0
0.394737 0.184211 0.0
0.447368 0.131579 0.0
0.5 0.131579 0.0
0.5 0.184211 0.0
0.447368 0.184211 0.0
0.5 0.131579 0.0
0.552632 0.131579 0.0
0.552632 0.184211 0.0
0.5 0.184211 0.0
0.552632 0.131579 0.0
0.605263 0.131579 0.0
0.605263 0.184211 0.0
0.552632 0.184211 0.0
0.605263 0.131579 0.0
0.657895 0.131579 0.0
0.657895 0.184211 0.0
0.605263 0.184211 0.0
0.657895 0.131579 0.0
0.710526 0.131579 0.0
0.710526 0.184211 0.0
0.657895 0.184211 0.0
0.710526 0.131579 0.0
0.763158 0.131579 0.0
0.763158 0.184211 0.0
0.710526 0.184211 0.0
0.763158 0.131579 0.0
0.815789 0.131579 0.0
0.815789 0.184211 0.0
0.763158 0.184211 0.0
0.815789 0.131579 0.0
0.868421 0.131579 0.0
0.868421 0.184211 0.0
0.815789 0.184211 0.0
0.868421 0.131579 0.0
0.921053 0.131579 0.0
0.921053 0.184211 0.0
0.868421 0.184211 0.0
0.921053 0.131579 0.0
0.973684 0.131579 0.0
0.973684 0.184211 0.0
0.921053 0.184211 0.0
0.973684 0.131579 0.0
1.02632 0.131579 0.0
1.02632 0.184211 0.0
0.973684 0.184211 0.0
-0.0263158 0.184211 0.0
0.0263158 0.184211 0.0
0.0263158 0.236842 0.0
-0.0263158 0.236842 0.0
0.0263158 0.184211 0.0
0.0789474 0.184211 0.0
0.0789474 0.236842 0.0
0.0263158 0.236842 0.0
0.0789474 0.184211 0.0
0.131579 0.184211 0.0
0.131579 0.236842 0.0
0.0789474 0.236842 0.0
0.131579 0.184211 0.0
0.184211 0.184211 0.0
0.184211 0.236842 0.0
0.131579 0.236842 0.0
0.184211 0.184211 0.0
0.236842 0.184211 0.0
0.236842 0.236842 0.0
0.184211 0.236842 0.0
0.236842 0.184211 0.0
0.289474 0.184211 0.0
0.289474 0.236842 0.0
0.236842 0.236842 0.0
0.289474 0.184211 0.0
0.342105 0.184211 0.0
0.342105 0.236842 0.0
0.289474 0.236842 0.0
0.342105 0.184211 0.0
0.394737 0.184211 0.0
0.394737 0.236842 0.0
0.342105 0.236842 0.0
0.394737 0.184211 0.0
0.447368 0.184211 0.0
0.447368 0.236842 0.0
0.394737 0.236842 0.0
0.447368 0.184211 0.0
0.5 0.184211 0.0
0.5 0.236842 0.0
0.447368 0.236842 0.0
0.5 0.184211 0.0
0.552632 0.184211 0.0
0.552632 0.236842 0.0
0.5 0.236842 0.0
0.552632 0.184211 0.0
0.605263 0.184211 0.0
0.605263 0.236842 0.0
0.552632 0.236842 0.0
0.605263 0.184211 0.0
0.657895 0.184211 0.0
0.657895 0.236842 0.0
0.605263 0.236842 0.0
0.657895 0.184211 0.0
0.710526 0.184211 0.0
0.710526 0.236842 0.0
0.657895 0.236842 0.0
0.710526 0.184211 0.0
0.763158 0.184211 0.0
0.763158 0.236842 0.0
0.710526 0.236842 0.0
0.763158 0.184211 0.0
0.815789 0.184211 0.0
0.815789 0.236842 0.0
0.763158 0.236842 0.0
0.815789 0.184211 0.0
0.868421 0.184211 0.0
0.868421 0.236842 0.0
0.815789 0.236842 0.0
0.868421 0.184211 0.0
0.921053 0.184211 0.0
0.921053 0.236842 0.0
0.868421 0.236842 0.0
0.921053 0.184211 0.0
0.973684 0.184211 0.0
0.973684 0.236842 0.0
0.921053 0.236842 0.0
0.973684 0.184211 0.0
1.02632 0.184211 0.0
1.02632 0.236842 0.0
0.973684 0.236842 0.0
-0.0263158 0.236842 0.0
0.0263158 0.236842 0.0
0.0263158 0.289474 0.0
-0.0263158 0.289474 0.0
0.0263158 0.236842 0.0
0.0789474 0.236842 0.0
0.0789474 0.289474 0.0
0.0263158 0.289474 0.0
0.0789474 0.236842 0.0
0.131579 0.236842 0.0
0.131579 0.289474 0.0
0.0789474 0.289474 0.0
0.131579 0.236842 0.0
0.184211 0.236842 0.0
0.184211 0.289474 0.0
0.131579 0.289474 0.0
0.184211 0.236842 0.0
0.236842 0.236842 0.0
0.236842 0.289474 0.0
0.184211 0.289474 0.0
0.236842 0.236842 0.0
0.289474 0.236842 0.0
0.289474 0.289474 0.0
0.236842 0.289474 0.0
0.289474 0.236842 0.0
0.342105 0.236842 0.0
0.342105 0.289474 0.0
0.289474 0.289474 0.0
0.342105 0.236842 0.0
0.394737 0.236842 0.0
0.394737 0.289474 0.0
0.342105 0.289474 0.0
0.394737 0.236842 0.0
0.447368 0.236842 0.0
0.447368 0.289474 0.0
0.394737 0.289474 0.0
0.447368 0.236842 0.0
0.5 0.236842 0.0
0.5 0.289474 0.0
0.447368 0.289474 0.0
0.5 0.236842 0.0
[...]
CELL_DATA 1540
SCALARS pressure double 1
LOOKUP_TABLE default
1
1
1
1
1
1
1
1
1
1
1
1
1
1
1
1
1
1
1
1
1
0.991213
0.982547
0.974119
0.966034
0.958385
0.951249
0.944683
0.938723
0.933389
0.928678
0.924574
0.921046
0.918053
0.915544
0.913464
0.911755
0.910358
0.909214
0.908264
1
0.982547
0.965335
0.948594
0.932536
0.917345
0.903171
0.890129
0.878292
0.867696
0.858339
0.850188
0.843181
0.837236
0.832253
0.828123
0.82473
0.821958
0.819689
0.817807
1
0.974119
0.948594
0.923769
0.899955
0.877428
0.856409
0.837069
0.819515
0.803802
0.789927
0.777839
0.767449
0.758634
0.751246
0.745123
0.740095
0.735989
0.732632
0.729854
1
0.966034
0.932536
0.899956
0.868704
0.839139
0.811555
0.786173
0.763136
0.742514
0.724305
0.708442
0.694807
0.683239
0.673545
0.665513
0.65892
0.65354
0.649148
0.645524
1
0.958386
0.917345
0.877429
0.83914
0.802918
0.769123
0.738025
0.709802
0.684537
0.662227
0.642793
0.626089
0.611917
0.600042
0.590206
0.582137
0.575558
0.570197
0.565788
1
0.95125
0.903173
0.856412
0.811557
0.769125
0.729535
0.693105
0.660042
0.630444
0.604309
0.581543
0.561975
0.545374
0.531466
0.519948
0.510504
0.502813
0.496558
0.491433
1
0.944685
0.890132
0.837073
0.786177
0.73803
0.693108
0.651771
0.614255
0.580671
0.551015
0.525182
0.502978
0.484141
0.468362
0.455297
0.44459
0.435879
0.428812
0.423044
1
0.938726
0.878297
0.819523
0.763145
0.709811
0.66005
0.61426
0.572702
0.535499
0.502648
0.47403
0.449432
0.428564
0.411084
0.396614
0.38476
0.375126
0.367326
0.360988
1
0.933393
0.867705
0.803815
0.74253
0.684554
0.630462
0.580686
0.535509
0.495066
0.459352
0.428239
0.401495
0.378805
0.359797
0.344064
0.331178
0.320716
0.312262
0.305419
1
0.928685
0.858354
0.789948
0.724332
0.662257
0.60434
0.551045
0.502673
0.459367
0.421124
0.387805
0.35916
0.334854
0.314489
0.297629
0.283822
0.272617
0.263578
0.25629
1
0.924586
0.850212
0.777874
0.708486
0.642843
0.581596
0.525234
0.474078
0.428278
0.387828
0.352581
0.322274
0.296549
0.274987
0.257128
0.242497
0.230623
0.221055
0.213366
1
0.921066
0.84322
0.767505
0.694877
0.626169
0.562061
0.503065
0.449516
0.401569
0.359219
0.322308
0.29056
0.2636
0.240987
0.22224
0.206865
0.194376
0.184314
0.176249
1
0.918084
0.837297
0.758722
0.683349
0.612044
0.545511
0.484282
0.428702
0.378933
0.334965
0.296634
0.263649
0.235618
0.212081
0.192536
0.176473
0.163397
0.152846
0.1444
1
0.915593
0.832348
0.751382
0.673716
0.60024
0.531681
0.468584
0.411304
0.360006
0.314677
0.275145
0.241105
0.212147
0.18779
0.167513
0.150788
0.137112
0.126031
0.117154
1
0.913539
0.828269
0.745333
0.665776
0.59051
0.520278
0.45564
0.396955
0.34439
0.29793
0.257391
0.222455
0.192693
0.1676
0.146628
0.129229
0.114888
0.103167
0.0937331
1
0.911869
0.824953
0.740414
0.65932
0.582598
0.511005
0.44511
0.385279
0.331678
0.284286
0.242912
0.207219
0.176756
0.150989
0.129337
0.111211
0.096071
0.0834907
0.0732331
1
0.91053
0.822293
0.736469
0.654141
0.57625
0.503565
0.436661
0.375906
0.321468
0.273318
0.231256
0.194926
0.163853
0.137466
0.115132
0.0961972
0.0800492
0.0662241
0.0545985
1
0.909471
0.820188
0.733348
0.650043
0.571227
0.497676
0.429971
0.368482
0.313376
0.264618
0.221996
0.185139
0.153542
0.126591
0.103587
0.0837681
0.0663602
0.0506971
0.0365947
1
0.908644
0.818545
0.730911
0.646844
0.567305
0.493078
0.424746
0.362682
0.30705
0.257812
0.214744
0.17746
0.145429
0.117995
0.0943833
0.0736964
0.0548826
0.0367164
0.0180444
1
1
1
1
1
1
1
1
1
1
1
1
1
1
1
1
1
1
0
0.907449
0.906712
0.905989
0.905212
0.904303
0.903164
0.901671
0.89966
0.896902
0.893069
0.887673
0.879949
0.868636
0.851501
0.824231
0.777552
0.688896
0.495606
0
0.816197
0.814745
0.813327
0.811812
0.810046
0.807845
0.804974
0.801124
0.795874
0.788629
0.778524
0.764252
0.743767
0.713713
0.668341
0.597436
0.482667
0.293651
0
0.727486
0.72536
0.723301
0.721118
0.718595
0.715475
0.711436
0.706061
0.698791
0.688864
0.675205
0.65627
0.629788
0.592366
0.538903
0.461884
0.351157
0.196567
0
0.64245
0.63971
0.637081
0.634327
0.63118
0.62733
0.622395
0.615891
0.607191
0.59546
0.579575
0.558006
0.528659
0.488691
0.434351
0.361051
0.264194
0.141802
0
0.562069
0.558785
0.555672
0.552458
0.548839
0.54447
0.538936
0.53173
0.522207
0.509546
0.492691
0.470278
0.440578
0.401458
0.350446
0.285061
0.203632
0.106884
0
0.48714
0.483386
0.47988
0.476321
0.472383
0.467705
0.461865
0.454358
0.444569
0.431744
0.414954
0.393072
0.364765
0.328542
0.282894
0.226621
0.159403
0.0826134
0
0.418246
0.414099
0.410289
0.406495
0.402384
0.397589
0.391699
0.384237
0.374644
0.362256
0.346298
0.325881
0.300028
0.267744
0.228165
0.180798
0.125876
0.064734
0
0.355755
0.351287
0.347253
0.343324
0.339164
0.334415
0.328686
0.321542
0.312488
0.300964
0.286344
0.267948
0.245082
0.217108
0.183559
0.144309
0.0997675
0.0510502
0
0.299813
0.295088
0.290902
0.286922
0.282815
0.278238
0.272828
0.266196
0.257915
0.247521
0.234521
0.218406
0.198695
0.174987
0.147053
0.114936
0.0790658
0.0403188
0
0.250365
0.245435
0.241154
0.237188
0.233211
0.228898
0.223916
0.217919
0.210544
0.201415
0.190146
0.176363
0.159735
0.140017
0.117112
0.0911342
0.062464
0.0317754
0
0.207161
0.202067
0.197735
0.193834
0.190043
0.186055
0.181563
0.176265
0.169853
0.162023
0.152475
0.140937
0.127181
0.111061
0.0925495
0.0717779
0.049063
0.0249136
0
0.169786
0.164555
0.160206
0.156405
0.15284
0.149213
0.145244
0.140664
0.135215
0.128648
0.120734
0.111272
0.100106
0.0871498
0.072411
0.0560124
0.038207
0.0193748
0
0.137679
0.132323
0.127981
0.124313
0.121003
0.117761
0.114325
0.110455
0.105931
0.100552
0.0941397
0.0865464
0.077665
0.067445
0.0559075
0.0431576
0.029391
0.0148888
0
0.110141
0.104661
0.100353
0.0968555
0.0938345
0.0909981
0.0880955
0.0849109
0.0812567
0.0769697
0.0719117
0.0659731
0.0590796
0.0512018
0.0423637
0.0326497
0.0222071
0.0112406
0
0.0863398
0.0807304
0.0765066
0.0732422
0.0705616
0.0681596
0.0657934
0.063268
0.0604244
0.0571313
0.0532827
0.0487979
0.0436253
0.0377474
0.0311857
0.0240047
0.0163113
0.00825128
0
0.0652663
0.0595496
0.0555272
0.0526164
0.0503642
0.0484457
0.0466285
0.0447418
0.0426557
0.0402686
0.0375019
0.0342981
0.030622
0.0264633
0.0218387
0.0167941
0.0114034
0.00576592
0
0.0456048
0.0399513
0.0364196
0.034088
0.0324047
0.0310434
0.0298011
0.0285432
0.0271739
0.0256225
0.0238363
0.021778
0.0194253
0.0167724
0.0138304
0.0106285
0.00721325
0.0036461
0
0.0253003
0.0205486
0.0181745
0.016793
0.015867
0.0151517
0.0145179
0.0138876
0.0132091
0.0124455
0.0115701
0.0105644
0.00941771
0.00812718
0.00669846
0.00514567
0.00349115
0.00176435
0
0
0
0
0
0
0
0
0
0
0
0
0
0
0
0
0
0
0
0
1
0.908007
0.81728
0.729034
0.64438
0.564284
0.489535
0.42072
0.358212
0.302174
0.252563
0.20915
0.171534
0.139167
0.111363
0.0872962
0.0659646
0.0460556
0.0255178
0
1
0.907523
0.816319
0.727608
0.642508
0.561989
0.486843
0.41766
0.354815
0.298468
0.248575
0.204902
0.167042
0.134439
0.106399
0.0820963
0.0605541
0.0406085
0.0208723
0
1
0.90716
0.815598
0.726539
0.641104
0.560268
0.484825
0.415367
0.352269
0.295692
0.245591
0.201729
0.1637
0.130949
0.102789
0.0784201
0.0569363
0.0373443
0.0186318
0
1
0.906892
0.815065
0.725748
0.640066
0.558995
0.483333
0.413671
0.350388
0.293643
0.243392
0.199399
0.16126
0.128425
0.100223
0.0758833
0.0545597
0.035363
0.0174238
0
1
0.906696
0.814676
0.725171
0.639308
0.558066
0.482244
0.412435
0.349017
0.292152
0.241796
0.197715
0.159508
0.126632
0.0984318
0.0741594
0.0530069
0.0341367
0.0167233
0
1
0.906554
0.814395
0.724754
0.638761
0.557396
0.481459
0.411545
0.348031
0.291082
0.240654
0.196516
0.158269
0.125379
0.0971998
0.073
0.0519935
0.0333651
0.0162986
0
1
0.906453
0.814195
0.724457
0.638372
0.556919
0.480901
0.410912
0.347332
0.290325
0.239848
0.195673
0.157406
0.124515
0.096362
0.0722263
0.0513325
0.0328742
0.0160344
0
1
0.906382
0.814053
0.724247
0.638096
0.556582
0.480507
0.410466
0.34684
0.289793
0.239286
0.195089
0.156811
0.123925
0.0957976
0.0717129
0.0509014
0.0325596
0.0158674
0
1
0.906332
0.813953
0.724099
0.637902
0.556345
0.48023
0.410153
0.346496
0.289424
0.238896
0.194686
0.156404
0.123526
0.0954195
0.0713735
0.0506203
0.0323571
0.015761
0
1
0.906295
0.813881
0.723993
0.637764
0.556176
0.480034
0.409932
0.346254
0.289165
0.238625
0.194408
0.156126
0.123255
0.0951663
0.0711487
0.0504363
0.0322258
0.0156925
0
1
0.906268
0.813828
0.723914
0.637661
0.556052
0.479889
0.409771
0.34608
0.28898
0.238433
0.194213
0.155933
0.123069
0.0949943
0.0709978
0.050314
0.0321394
0.0156477
0
1
0.906246
0.813784
0.72385
0.637578
0.555952
0.479775
0.409645
0.345944
0.288838
0.238288
0.194068
0.155792
0.122936
0.0948725
0.0708924
0.0502297
0.0320804
0.0156173
0
1
0.906225
0.813742
0.723789
0.6375
0.55586
0.479671
0.409532
0.345825
0.288716
0.238166
0.193949
0.155678
0.122831
0.0947783
0.0708124
0.0501666
0.0320368
0.0155949
0
1
0.906201
0.813696
0.723722
0.637415
0.55576
0.47956
0.409414
0.345703
0.288593
0.238046
0.193834
0.155571
0.122734
0.0946943
0.0707425
0.0501125
0.0319998
0.0155762
0
1
0.906171
0.813637
0.723637
0.637308
0.555635
0.479423
0.409269
0.345556
0.288449
0.237907
0.193705
0.155453
0.12263
0.0946054
0.07067
0.0500574
0.0319627
0.0155575
0
1
0.906129
0.813556
0.723521
0.637162
0.555466
0.479238
0.409077
0.345362
0.28826
0.237728
0.19354
0.155306
0.122501
0.0944974
0.0705832
0.0499922
0.0319192
0.0155358
0
1
0.90607
0.81344
0.723355
0.636954
0.555227
0.478979
0.408807
0.345093
0.287999
0.237483
0.193316
0.155107
0.12233
0.0943548
0.0704697
0.0499075
0.0318631
0.0155078
0
1
0.905984
0.813273
0.723117
0.636657
0.554885
0.478608
0.408424
0.344711
0.287631
0.23714
0.193004
0.154832
0.122094
0.0941594
0.0703149
0.0497927
0.0317873
0.0154702
0
1
0.905861
0.813033
0.722774
0.636229
0.554395
0.478079
0.407878
0.34417
0.287112
0.236656
0.192567
0.154447
0.121766
0.0938889
0.0701015
0.0496348
0.0316832
0.0154185
0
1
0.905683
0.812688
0.722282
0.635618
0.553696
0.477326
0.407104
0.343405
0.286381
0.235978
0.191956
0.153913
0.121312
0.0935154
0.0698075
0.0494179
0.0315406
0.0153478
0
1
0.905429
0.812196
0.721581
0.634749
0.552706
0.476263
0.406016
0.342333
0.28536
0.235036
0.191111
0.153175
0.120687
0.0930035
0.0694058
0.0491222
0.0313465
0.0152518
0
1
0.905069
0.811499
0.72059
0.633523
0.551314
0.474775
0.404498
0.340844
0.283949
0.233739
0.189952
0.152168
0.119837
0.0923095
0.0688629
0.0487235
0.0310852
0.0151226
0
1
0.90456
0.810516
0.719197
0.631806
0.549371
0.472707
0.402399
0.338796
0.282018
0.231972
0.18838
0.150808
0.118694
0.09138
0.068138
0.0481925
0.0307379
0.0149511
0
1
0.903846
0.809139
0.717251
0.629417
0.54668
0.469857
0.399522
0.336005
0.2794
0.22959
0.186273
0.148995
0.117177
0.0901506
0.0671825
0.0474946
0.0302823
0.0147264
0
1
0.902848
0.807218
0.714547
0.626112
0.542978
0.465961
0.395616
0.332239
0.275891
0.226417
0.183483
0.146605
0.115187
0.0885458
0.0659399
0.0465897
0.029693
0.0144361
0
1
0.901456
0.804546
0.710802
0.621564
0.537919
0.460676
0.390355
0.327207
0.271236
0.222238
0.179831
0.143497
0.112613
0.0864796
0.0643464
0.0454329
0.0289413
0.0140664
0
1
0.899515
0.800836
0.705633
0.615331
0.531044
0.453557
0.383334
0.320549
0.26513
0.216798
0.175112
0.139508
0.109329
0.0838565
0.0623321
0.0439757
0.0279969
0.0136026
0
1
0.896805
0.795682
0.698507
0.606818
0.521751
0.444037
0.374044
0.31183
0.257209
0.209805
0.169096
0.134459
0.105198
0.0805754
0.059824
0.0421678
0.0268283
0.0130296
0
1
0.893006
0.788503
0.688677
0.595215
0.509247
0.431395
0.361862
0.300533
0.24706
0.200933
0.161531
0.128159
0.100081
0.0765339
0.0567496
0.0399602
0.0254051
0.012333
0
1
0.887632
0.778442
0.675084
0.579416
0.492496
0.414728
0.346043
0.286065
0.234223
0.189836
0.15216
0.120422
0.09384
0.0716357
0.0530422
0.0373084
0.0237005
0.0115
0
1
0.879922
0.7642
0.656192
0.557904
0.470153
0.392927
0.325718
0.26777
0.218217
0.176166
0.140737
0.111074
0.0863578
0.0658001
0.0486478
0.0341778
0.0216938
0.0105211
0
1
0.868619
0.743734
0.629738
0.528595
0.4405
0.364673
0.299925
0.24497
0.198576
0.159611
0.127056
0.0999826
0.0775477
0.0589724
0.0435325
0.030548
0.0193736
0.00939112
0
1
0.851491
0.713692
0.592335
0.488651
0.401409
0.328485
0.26768
0.217038
0.174913
0.139941
0.110983
0.0870739
0.0673729
0.0511362
0.0376907
0.0264182
0.016741
0.00811106
0
1
0.824225
0.668329
0.538884
0.434326
0.350416
0.282859
0.228126
0.183517
0.147008
0.117066
0.0925025
0.072365
0.0558639
0.0423241
0.0311517
0.0218117
0.0138116
0.00668882
0
1
0.777548
0.597429
0.461873
0.361037
0.285043
0.2266
0.180775
0.144284
0.11491
0.0911067
0.0717502
0.0559854
0.0431321
0.0326265
0.0239848
0.0167783
0.0106176
0.00514006
0
1
0.688894
0.482663
0.351151
0.264186
0.203622
0.159392
0.125863
0.0997536
0.079051
0.0624488
0.0490478
0.0381921
0.029377
0.0221944
0.0163004
0.0113947
0.00720726
0.00348809
0
1
0.495606
0.293649
0.196564
0.141799
0.10688
0.0826083
0.0647283
0.051044
0.0403123
0.0317686
0.0249068
0.0193683
0.0148826
0.011235
0.00824648
0.00576213
0.00364347
0.00176301
0
1
0
0
0
0
0
0
0
0
0
0
0
0
0
0
0
0
0
0
0
