# vtk DataFile Version 3.0
Scalar field output
ASCII
DATASET UNSTRUCTURED_GRID
POINTS 84 float
-0.25 -0.25 0.0
0.25 -0.25 0.0
0.25 0.25 0.0
-0.25 0.25 0.0
0.25 -0.25 0.0
0.75 -0.25 0.0
0.75 0.25 0.0
0.25 0.25 0.0
0.75 -0.25 0.0
1.25 -0.25 0.0
1.25 0.25 0.0
0.75 0.25 0.0
-0.25 0.25 0.0
0.25 0.25 0.0
0.25 0.75 0.0
-0.25 0.75 0.0
0.25 0.25 0.0
0.75 0.25 0.0
0.75 0.75 0.0
0.25 0.75 0.0
0.75 0.25 0.0
1.25 0.25 0.0
1.25 0.75 0.0
0.75 0.75 0.0
-0.25 0.75 0.0
0.25 0.75 0.0
0.25 1.25 0.0
-0.25 1.25 0.0
0.25 0.75 0.0
0.75 0.75 0.0
0.75 1.25 0.0
0.25 1.25 0.0
0.75 0.75 0.0
1.25 0.75 0.0
1.25 1.25 0.0
0.75 1.25 0.0
1.25 -0.25 0.0
1.75 -0.25 0.0
1.75 0.25 0.0
1.25 0.25 0.0
1.75 -0.25 0.0
2.25 -0.25 0.0
2.25 0.25 0.0
1.75 0.25 0.0
1.25 0.25 0.0
1.75 0.25 0.0
1.75 0.75 0.0
1.25 0.75 0.0
1.75 0.25 0.0
2.25 0.25 0.0
2.25 0.75 0.0
1.75 0.75 0.0
1.25 0.75 0.0
1.75 0.75 0.0
1.75 1.25 0.0
1.25 1.25 0.0
1.75 0.75 0.0
2.25 0.75 0.0
2.25 1.25 0.0
1.75 1.25 0.0
-0.25 1.25 0.0
0.25 1.25 0.0
0.25 1.75 0.0
-0.25 1.75 0.0
0.25 1.25 0.0
0.75 1.25 0.0
0.75 1.75 0.0
0.25 1.75 0.0
0.75 1.25 0.0
1.25 1.25 0.0
1.25 1.75 0.0
0.75 1.75 0.0
-0.25 1.75 0.0
0.25 1.75 0.0
0.25 2.25 0.0
-0.25 2.25 0.0
0.25 1.75 0.0
0.75 1.75 0.0
0.75 2.25 0.0
0.25 2.25 0.0
0.75 1.75 0.0
1.25 1.75 0.0
1.25 2.25 0.0
0.75 2.25 0.0
CELLS 21 105
4 0 1 2 3
4 4 5 6 7
4 8 9 10 11
4 12 13 14 15
4 16 17 18 19
4 20 21 22 23
4 24 25 26 27
4 28 29 30 31
4 32 33 34 35
4 36 37 38 39
4 40 41 42 43
4 44 45 46 47
4 48 49 50 51
4 52 53 54 55
4 56 57 58 59
4 60 61 62 63
4 64 65 66 67
4 68 69 70 71
4 72 73 74 75
4 76 77 78 79
4 80 81 82 83
CELL_TYPES 21
9
9
9
9
9
9
9
9
9
9
9
9
9
9
9
9
9
9
9
9
9
CELL_DATA 21
SCALARS temperature float 1
LOOKUP_TABLE default
0
0
0
0
14.1918
15.8948
0
15.8948
14.1918
0
0
10.2209
0
0
0
0
10.2209
0
0
0
0
